# Probe 0 (0.3 0.15 0.005)
# Probe 1 (0.3 0.2 0.005)
# Probe 2 (0.3 0.25 0.005)
# Probe 3 (0.4 0.15 0.005)
# Probe 4 (0.4 0.2 0.005)
# Probe 5 (0.4 0.25 0.005)
# Probe 6 (0.5 0.15 0.005)
# Probe 7 (0.5 0.2 0.005)
# Probe 8 (0.5 0.25 0.005)
# Probe 9 (0.6 0.15 0.005)
# Probe 10 (0.6 0.2 0.005)
# Probe 11 (0.6 0.25 0.005)
# Time          0               1               2               3               4               5               6               7               8               9               10              11             
4               -0.044091079    -0.060614818    -0.20797767     -0.02757712     -0.016002638    -0.0018734884   0.0096021962    0.037404693     0.059389128     0.067964783     0.06711893      0.054982718    
4.01            -0.23796948     -0.097750705    -0.055531464    -0.067303789    -0.018764799    0.036016595     0.018259148     0.035145505     0.042791305     0.072957196     0.066724907     0.050159803    
4.02            -0.45392764     -0.11863133     0.08947693      -0.089234784    -0.018524032    0.055201354     0.032334144     0.034134834     0.023787544     0.074569788     0.066995109     0.050772057    
4.03            -0.54016844     -0.05652304     0.14803164      -0.077276713    -0.012994292    0.047422172     0.048669601     0.034722421     0.0074228658    0.072808932     0.067748289     0.05589966     
4.04            -0.42231913     -0.032382894    0.081734648     -0.044707077    -0.014007165    0.008572817     0.059071959     0.034642435     -0.0011846087   0.067863842     0.068246169     0.063508077    
4.05            -0.22527773     -0.05217172     -0.025410926    -0.0098600056   -0.018933376    -0.041951103    0.058217511     0.034846118     0.0036707226    0.061145045     0.068511268     0.071385148    
4.06            -0.041515534    -0.091638312    -0.18799209     0.019867483     -0.025727667    -0.087021763    0.046595718     0.034877169     0.019501403     0.055578609     0.068357413     0.075917185    
4.07            0.10871205      -0.12581982     -0.37786119     0.038172717     -0.029266126    -0.10840003     0.030502535     0.035397477     0.039735066     0.053679745     0.06796273      0.075220614    
4.08            0.15323945      -0.072484829    -0.45840035     0.038448569     -0.022735294    -0.091671965    0.016780514     0.037435988     0.05756665      0.055874663     0.067654951     0.070098582    
4.09            0.078305748     -0.045522266    -0.36975722     0.011571127     -0.017682643    -0.048841699    0.0082255413    0.037921482     0.065245775     0.060902499     0.067074151     0.062345664    
4.1             -0.044725145    -0.061284798    -0.2086665      -0.02821352     -0.016672737    -0.0025588842   0.0087929423    0.036743232     0.058843825     0.067253856     0.066455568     0.054354375    
4.11            -0.23855069     -0.098375307    -0.05616845     -0.067878341    -0.019381104    0.035304897     0.017516155     0.034527518     0.042284938     0.072264514     0.066111302     0.049606097    
4.12            -0.45446741     -0.11920279     0.088888922     -0.089757978    -0.019110722    0.054566428     0.03165467      0.033560944     0.023319577     0.073894842     0.066428701     0.050286832    
4.13            -0.54067578     -0.057052312    0.14749356      -0.077752901    -0.013522572    0.046828141     0.048051686     0.034197535     0.0069913646    0.072152437     0.067226638     0.055476898    
4.14            -0.42280604     -0.032863858    0.081243951     -0.045124621    -0.014503455    0.0080138454    0.058523254     0.034168593     -0.0015829853   0.067230925     0.067767504     0.063140914    
4.15            -0.22573819     -0.052621633    -0.025865153    -0.010249785    -0.019403158    -0.042487181    0.057720409     0.034399607     0.0032800984    0.060533885     0.068068618     0.07106839     
4.16            -0.041943243    -0.092056492    -0.18841334     0.01950889      -0.026165656    -0.087528953    0.04615256      0.034461633     0.019120842     0.054994458     0.06794957      0.075645194    
4.17            0.10830826      -0.12620816     -0.3782457      0.037843318     -0.02966872     -0.108871       0.030110157     0.03501149      0.039364382     0.053125397     0.067587487     0.074987567    
4.18            0.15286198      -0.072851341    -0.45875793     0.038149148     -0.023109975    -0.092110384    0.016434106     0.037071103     0.057195687     0.055353598     0.067307311     0.069893271    
4.19            0.077946948     -0.045872864    -0.37008059     0.011285639     -0.018039051    -0.049253942    0.0079123902    0.037569289     0.064870631     0.060413975     0.066747709     0.062157548    
4.2             -0.045070609    -0.061614398    -0.20898556     -0.028484933    -0.017008511    -0.0029452286   0.0085107638    0.03639892      0.058460976     0.066796739     0.066143704     0.054171625    
4.21            -0.23888503     -0.098698397    -0.056475907    -0.068142421    -0.0197112      0.03496138      0.017256461     0.034172465     0.041890015     0.07183474      0.065806724     0.049415988    
4.22            -0.45479169     -0.11951324     0.088571864     -0.090020251    -0.019427243    0.054203263     0.031408398     0.033203414     0.022906435     0.073487545     0.066123496     0.050076948    
4.23            -0.54101316     -0.057377279    0.14718442      -0.078031663    -0.013859873    0.046469173     0.047804128     0.033836368     0.0065626584    0.071760035     0.066913434     0.055239243    
4.24            -0.42315524     -0.033197587    0.080929265     -0.045428883    -0.014831949    0.0076607411    0.058264757     0.033816824     -0.0020165048   0.066847951     0.067441069     0.062870014    
4.25            -0.22610505     -0.052971033    -0.026190587    -0.010600315    -0.019749931    -0.042846476    0.057447037     0.034028587     0.0028287453    0.060155185     0.067721396     0.070756029    
4.26            -0.042326772    -0.0924252      -0.18875585     0.019130477     -0.026535329    -0.087901802    0.045865352     0.034073546     0.018654605     0.054617726     0.067578425     0.075287102    
4.27            0.1079053       -0.12659816     -0.3786109      0.037440824     -0.030077289    -0.10926204     0.029806356     0.034604367     0.038880253     0.052747136     0.067189477     0.074581287    
4.28            0.15243376      -0.073264637    -0.45914885     0.037707092     -0.023535227    -0.092519064    0.016102191     0.036642054     0.056694661     0.054968725     0.066880296     0.069439122    
4.29            0.077494646     -0.046307483    -0.37050978     0.010812964     -0.018479127    -0.049670631    0.0075526784    0.037120468     0.064354091     0.06002006      0.06629229      0.061657351    
4.3             -0.045548311    -0.06207826     -0.20943973     -0.028991435    -0.017473035    -0.0033834969   0.0081133632    0.035928006     0.057930488     0.066390974     0.065661315     0.053629685    
4.31            -0.2393881      -0.099184318    -0.056959679    -0.068679677    -0.020203712    0.03453478      0.016817876     0.033689278     0.041348152     0.071416909     0.06529987      0.048838685    
4.32            -0.45531277     -0.12002704     0.088069529     -0.090580422    -0.019933326    0.053744658     0.030932749     0.032706547     0.022357965     0.073060363     0.065596693     0.049472086    
4.33            -0.54154034     -0.057902223    0.14665837      -0.078603422    -0.014384872    0.045993746     0.047297964     0.033323613     0.0060083232    0.071326754     0.06637116      0.054613482    
4.34            -0.4236855      -0.033740297    0.080387756     -0.046020486    -0.015372629    0.0071692474    0.05773021      0.033265025     -0.0025873693   0.066407932     0.066885757     0.062229411    
4.35            -0.22663701     -0.053515894    -0.026738818    -0.011183349    -0.020286721    -0.043335831    0.056900541     0.033481837     0.0022740633    0.059714791     0.067162818     0.070108036    
4.36            -0.042863638    -0.092970547    -0.18930288     0.018546987     -0.027071323    -0.088390406    0.045303083     0.03352554      0.01811013      0.054173569     0.067018681     0.074638858    
4.37            0.10737296      -0.1271417      -0.37915726     0.036860074     -0.030607971    -0.10975204     0.029233209     0.034058688     0.038349382     0.052299203     0.066632189     0.073938778    
4.38            0.15190857      -0.073800114    -0.45969006     0.037135024     -0.024064435    -0.09301262     0.015524891     0.036104311     0.056183294     0.05451673      0.066329773     0.068809585    
4.39            0.07698303      -0.046830857    -0.37104717     0.010258147     -0.018999453    -0.050161763    0.0069796264    0.036596336     0.063865682     0.059565496     0.065753003     0.061047266    
4.4             -0.046042169    -0.062589959    -0.20996074     -0.029527512    -0.017983774    -0.0038706333   0.0075484159    0.035421303     0.057467206     0.065935066     0.065137124     0.053045391    
4.41            -0.23986404     -0.099678251    -0.057465044    -0.069194729    -0.02069465     0.034032979     0.016266499     0.033206858     0.04091129      0.070962239     0.064794234     0.048285639    
4.42            -0.45577164     -0.12050426     0.087589998     -0.091072226    -0.020410729    0.053279031     0.030399747     0.032243618     0.02195036      0.072609783     0.065112922     0.048954637    
4.43            -0.54197547     -0.058352373    0.14619704      -0.079066379    -0.014826262    0.0455471       0.046789262     0.032882209     0.0056277594    0.070883594     0.065911824     0.054133977    
4.44            -0.424102       -0.034165823    0.079950171     -0.046448173    -0.015802023    0.0067389821    0.05724781      0.032847853     -0.0029445083   0.065974548     0.06645254      0.061789388    
4.45            -0.22703248     -0.053918314    -0.027153371    -0.01157637     -0.020693622    -0.043748324    0.056443752     0.033088395     0.0019362898    0.059292721     0.066756708     0.069709126    
4.46            -0.043236614    -0.093348134    -0.18969243     0.018183693     -0.027453192    -0.088782609    0.044873261     0.033155281     0.017789258     0.053764472     0.06664028      0.074281136    
4.47            0.10702255      -0.12749479     -0.37951963     0.036523598     -0.030955061    -0.11012078     0.028831084     0.033711913     0.038046458     0.051904443     0.066281875     0.073621712    
4.48            0.15158327      -0.074130217    -0.46002654     0.036831314     -0.024390932    -0.093359512    0.01515292      0.03578001      0.055896443     0.054138442     0.066006985     0.068530375    
4.49            0.07668161      -0.047140415    -0.37135157     0.0099800746    -0.019308123    -0.050492833    0.0066354983    0.03629138      0.063592548     0.059204551     0.065455823     0.060802276    
4.5             -0.046320105    -0.062873537    -0.21024687     -0.029778199    -0.018269192    -0.0041797489   0.0072363927    0.035136235     0.05720662      0.065592407     0.064863499     0.052830151    
4.51            -0.24011878     -0.099942466    -0.057727573    -0.069420516    -0.020958087    0.033732424     0.01598688      0.032934353     0.040660917     0.070637565     0.064541592     0.048094276    
4.52            -0.45600656     -0.1207435      0.087341763     -0.091278327    -0.020657893    0.052999083     0.030147499     0.031989538     0.021708634     0.072301163     0.064877882     0.048781232    
4.53            -0.54220274     -0.058581237    0.14597145      -0.079261171    -0.015059232    0.045284969     0.046558621     0.032646355     0.0053953789    0.07058864      0.06569112      0.053973869    
4.54            -0.42432368     -0.034378873    0.079740949     -0.046627175    -0.016017559    0.0064931928    0.057040782     0.032631087     -0.0031663362   0.06569339      0.066243736     0.061638019    
4.55            -0.22724903     -0.054124871    -0.027352816    -0.011763044    -0.020905601    -0.043987147    0.056250438     0.032875875     0.0017128136    0.059022644     0.066554524     0.069561475    
4.56            -0.043445976    -0.093549222    -0.18988565     0.017999594     -0.02766085     -0.089015006    0.044694762     0.03294891      0.017565837     0.053505995     0.066442925     0.074133638    
4.57            0.10681549      -0.1276922      -0.37970747     0.036341567     -0.031163251    -0.11034596     0.028664574     0.033509952     0.037821561     0.051656778     0.066087096     0.073471119    
4.58            0.15137685      -0.074327796    -0.46021398     0.036646234     -0.024594987    -0.093579187    0.014992647     0.035578132     0.055666156     0.053900546     0.065811831     0.068372457    
4.59            0.076472787     -0.047339922    -0.37154074     0.0097887947    -0.019511186    -0.050706322    0.0064763767    0.036086971     0.063355693     0.058974677     0.06525779      0.060633688    
4.6             -0.046534275    -0.06307681     -0.21044309     -0.029977681    -0.018474461    -0.0043920195   0.0070734846    0.03492627      0.05696211      0.065368616     0.06466032      0.052647961    
4.61            -0.24033938     -0.10015229     -0.0579313      -0.069629304    -0.021172222    0.033537658     0.01581629      0.032715061     0.040407194     0.07041798      0.064331212     0.047895948    
4.62            -0.45623182     -0.12096062     0.087127069     -0.091495839    -0.020873244    0.052784581     0.029967286     0.031762888     0.021444713     0.072084608     0.064658841     0.048565063    
4.63            -0.54243588     -0.058808673    0.14574896      -0.079489832    -0.015292128    0.04506407      0.046365233     0.032411358     0.0051226293    0.070373282     0.065462277     0.053739426    
4.64            -0.42456329     -0.034617887    0.079508584     -0.046876416    -0.016255656    0.0062657672    0.056830875     0.032383077     -0.0034489142   0.065476931     0.066003891     0.061385256    
4.65            -0.22749618     -0.054371091    -0.02759268     -0.012022246    -0.021148529    -0.04421718     0.056030323     0.032622351     0.0014289931    0.058805627     0.066304965     0.069290677    
4.66            -0.043702111    -0.093803808    -0.19013268     0.017728328     -0.027912152    -0.089250269    0.044462004     0.032687646     0.017279676     0.053286344     0.066183253     0.073845868    
4.67            0.10655298      -0.12795481     -0.3799637      0.036061763     -0.031427642    -0.11058953     0.028420451     0.03324152      0.037532849     0.051433584     0.065817717     0.073167683    
4.68            0.15110695      -0.074596601    -0.46047831     0.036354939     -0.024865412    -0.093831039    0.014736205     0.035303916     0.055377535     0.053672285     0.065533827     0.068056331    
4.69            0.076198483     -0.047612544    -0.3718173      0.0094923862    -0.019784395    -0.05096126     0.0062111694    0.035809874     0.06306893      0.058741345     0.064973199     0.06030805     
4.7             -0.046811634    -0.063355809    -0.2107224      -0.030279363    -0.018753085    -0.0046536497   0.006798038     0.034647015     0.056678586     0.065130038     0.064371244     0.052316705    
4.71            -0.24061982     -0.100433       -0.058215381    -0.06993479     -0.021453674    0.033274025     0.015530643     0.03244026      0.040129304     0.07017502      0.064039989     0.047563665    
4.72            -0.45651296     -0.12124524     0.086845757     -0.091801326    -0.021155091    0.052523113     0.029675751     0.031488766     0.021174424     0.071839477     0.064368302     0.048235929    
4.73            -0.54271076     -0.059087665    0.14546562      -0.079789058    -0.015567917    0.044802882     0.046073067     0.032136997     0.0048587237    0.070128413     0.065174902     0.05341648     
4.74            -0.42483188     -0.034893863    0.079228012     -0.047168326    -0.016530343    0.0060065677    0.056538866     0.032110442     -0.003706381    0.065233347     0.065721785     0.061071522    
4.75            -0.2277586      -0.054640265    -0.027867584    -0.012300625    -0.021416482    -0.044471487    0.055741259     0.032356559     0.0011805307    0.058564612     0.066030601     0.068989087    
4.76            -0.043958329    -0.094064675    -0.19039888     0.017460099     -0.028171134    -0.089497386    0.044176856     0.032429329     0.017040483     0.053048173     0.065918051     0.073558654    
4.77            0.10630604      -0.12820669     -0.38022068     0.035803851     -0.031672729    -0.1108295      0.02814113      0.032991804     0.037304038     0.051198766     0.06556293      0.072896483    
4.78            0.15087077      -0.07483816     -0.46072471     0.03611114      -0.025103248    -0.094064529    0.014465708     0.035064385     0.055160505     0.053441445     0.065290652     0.067802555    
4.79            0.075974575     -0.04784327     -0.37205123     0.0092628921    -0.020013535    -0.051188982    0.0059514743    0.03558119      0.062863786     0.058515279     0.064742365     0.060072477    
4.8             -0.047022072    -0.063573925    -0.21094457     -0.030493534    -0.018971248    -0.0048725376   0.0065519679    0.034430642     0.056485634     0.064909505     0.064153264     0.052099807    
4.81            -0.24081666     -0.10063881     -0.058424305    -0.07013355     -0.021657888    0.033052493     0.015300207     0.032236219     0.039948132     0.069960782     0.063835107     0.047365149    
4.82            -0.45669784     -0.12143716     0.086650063     -0.091986177    -0.021350106    0.052320709     0.029460877     0.031296953     0.021005289     0.071631737     0.064176399     0.048055153    
4.83            -0.5428855      -0.059267389    0.14528353      -0.079960895    -0.015745929    0.044612508     0.045873502     0.031958578     0.0047013738    0.069927449     0.064995744     0.053252648    
4.84            -0.42499883     -0.035059664    0.079059931     -0.047320178    -0.016697885    0.0058273804    0.056356233     0.031945765     -0.0038531773   0.065039735     0.065555113     0.060923895    
4.85            -0.2279165      -0.054796811    -0.028025748    -0.01244666     -0.021576333    -0.044643174    0.055571982     0.032201305     0.0010396859    0.058378754     0.065875013     0.068855744    
4.86            -0.044106186    -0.094211281    -0.19054701     0.017325015     -0.028321462    -0.089660564    0.044021771     0.032283721     0.016904915     0.052870548     0.065773161     0.073438752    
4.87            0.10616634      -0.12834396     -0.38035808     0.035678149     -0.0318119      -0.11098231     0.02799921      0.032855427     0.037173869     0.051029624     0.065428136     0.072788796    
4.88            0.15073951      -0.074967861    -0.46085339     0.035995074     -0.025234013    -0.094207904    0.014335933     0.034935443     0.055033659     0.05328126      0.065164776     0.067704671    
4.89            0.07585016      -0.04796691     -0.37216976     0.0091529368    -0.020138068    -0.051324911    0.0058312692    0.035457709     0.062739063     0.05836376      0.064623896     0.059982028    
4.9             -0.047140832    -0.063690369    -0.21105936     -0.030597441    -0.019088859    -0.0050006711   0.0064410767    0.0343117       0.056362165     0.064766327     0.064040699     0.052014205    
4.91            -0.24093026     -0.10075125     -0.058533912    -0.07023275     -0.021771424    0.032933571     0.015197487     0.032117439     0.039824487     0.069825125     0.063726795     0.047281466    
4.92            -0.45680689     -0.12154421     0.086541147     -0.092082173    -0.021458698    0.052201154     0.029363716     0.031181193     0.020880447     0.071502389     0.064070605     0.047970767    
4.93            -0.54299507     -0.059374979    0.14517892      -0.080057582    -0.015856725    0.044496259     0.045778492     0.031845743     0.0045760696    0.069802802     0.06489086      0.05316576     
4.94            -0.42510909     -0.035166266    0.078957093     -0.047417723    -0.016804311    0.0057143953    0.056262718     0.03183488      -0.0039785157   0.064918736     0.065449872     0.060833103    
4.95            -0.2280281      -0.054904727    -0.028129047    -0.012552563    -0.021684662    -0.044755845    0.055478519     0.03208908      0.00091265922   0.058260739     0.065767851     0.068758938    
4.96            -0.044219174    -0.094321052    -0.19065165     0.01721493      -0.028431975    -0.089773568    0.043927857     0.032170148     0.016776593     0.052754742     0.065663286     0.073335178    
4.97            0.1060511       -0.12845616     -0.38046517     0.03556499      -0.031928227    -0.1110968      0.027904352     0.032739934     0.037043344     0.050915379     0.065314823     0.072677683    
4.98            0.15062094      -0.075083167    -0.46096406     0.03587591      -0.025351901    -0.094324201    0.014237792     0.034817102     0.054900609     0.053167618     0.065047372     0.067585648    
4.99            0.075728193     -0.048085111    -0.37228623     0.0090289469    -0.020257527    -0.051441242    0.0057294215    0.035336597     0.062603595     0.058250099     0.064502246     0.059855077    
5               -0.04726673     -0.063813045    -0.21117982     -0.03072705     -0.019211882    -0.0051198372   0.0063333468    0.034187046     0.056224393     0.064651926     0.063914782     0.051879742    
5.01            -0.24106043     -0.10087761     -0.05865941     -0.07036781     -0.021899288    0.032818589     0.015082426     0.031990803     0.03968493      0.069709635     0.063596797     0.047140379    
5.02            -0.45693992     -0.12167536     0.086412183     -0.092221212    -0.021588262    0.052079654     0.029242376     0.031051408     0.020739381     0.071386211     0.06393707      0.047824026    
5.03            -0.54312926     -0.059508376    0.14504569      -0.080198967    -0.015990674    0.044371762     0.045651792     0.031712217     0.0044334219    0.06968624      0.064754351     0.05301436     
5.04            -0.42524347     -0.035303272    0.078820367     -0.047564547    -0.016940144    0.0055877454    0.056130537     0.031697311     -0.00412224     0.064801816     0.065310942     0.060677962    
5.05            -0.22816359     -0.055042333    -0.02826672     -0.012697802    -0.021820644    -0.044882626    0.0553427       0.031950584     0.00077022497   0.058143407     0.065627606     0.068601642    
5.06            -0.044355963    -0.094459146    -0.19078941     0.017068859     -0.028568198    -0.089900305    0.043788582     0.032031083     0.016636072     0.05263684      0.065522301     0.073176731    
5.07            0.1059149       -0.12859431     -0.38060338     0.035419081     -0.032064396    -0.11122432     0.027762603     0.032600923     0.036905172     0.050796824     0.065173724     0.072519172    
5.08            0.15048559      -0.075220229    -0.46110175     0.035730769     -0.025488042    -0.094452686    0.01409461      0.034679235     0.054766056     0.053048223     0.064906998     0.067428587    
5.09            0.075595103     -0.048220093    -0.37242394     0.0088866272    -0.020392033    -0.051569229    0.005586526     0.035201145     0.062473471     0.058130151     0.064363565     0.059700881    
5.1             -0.047396645    -0.06394616     -0.21131455     -0.0308662      -0.019344771    -0.0052473229   0.0061913842    0.034054778     0.056099203     0.064531691     0.063778693     0.051729875    
5.11            -0.24118707     -0.10100738     -0.0587914      -0.070503228    -0.022028573    0.032688873     0.014942323     0.03186365      0.03956525      0.0695897       0.063464171     0.046996254    
5.12            -0.45706315     -0.12180201     0.086285398     -0.092352164    -0.02171484     0.051956991     0.029105385     0.030928371     0.020625977     0.071267323     0.063808801     0.047686842    
5.13            -0.54324727     -0.059629288    0.14492253      -0.080323783    -0.016109745    0.044252961     0.045519615     0.031593309     0.0043257782    0.069569295     0.064631178     0.052884836    
5.14            -0.42535697     -0.035418693    0.078702531     -0.047680312    -0.017055566    0.0054731742    0.056004        0.031583851     -0.0042242151   0.064687389     0.065193513     0.060556843    
5.15            -0.22827222     -0.055152709    -0.028379667    -0.012807342    -0.021931704    -0.04499354     0.055221302     0.031842059     0.00067264686   0.058031953     0.065516161     0.06848921     
5.16            -0.044459371    -0.094563737    -0.19089652     0.016966178     -0.028673404    -0.090006364    0.043673052     0.031927975     0.016542954     0.052528715     0.065417216     0.073073384    
5.17            0.10581699      -0.12869308     -0.38070417     0.03532269      -0.032161553    -0.11132484     0.027653163     0.032503434     0.036816909     0.050692312     0.065075195     0.072425       
5.18            0.15039375      -0.075313328    -0.46119635     0.035642012     -0.025580207    -0.094548023    0.01399192      0.034587316     0.054682424     0.052947744     0.064815026     0.067343225    
5.19            0.075509235     -0.048307913    -0.37251115     0.0088043023    -0.020479574    -0.05166051     0.005490385     0.035114291     0.062394018     0.058033903     0.064277864     0.059623748    
5.2             -0.047476558    -0.064027671    -0.21139683     -0.03094175     -0.01942661     -0.0053332673   0.006102696     0.033973172     0.056023731     0.064439862     0.063698915     0.051660204    
5.21            -0.24126111     -0.10108378     -0.058867773    -0.070572442    -0.022104717    0.032604945     0.014861319     0.031785872     0.039493212     0.069502249     0.063389833     0.046932944    
5.22            -0.45713209     -0.1218723      0.086213275     -0.092416119    -0.021786746    0.05187881      0.029031328     0.030855133     0.020556911     0.071183904     0.063739244     0.047628724    
5.23            -0.54331342     -0.05969614     0.14485603      -0.080384104    -0.016177166    0.044179494     0.045450982     0.031525209     0.0042600428    0.069489396     0.064565767     0.052831048    
5.24            -0.42542106     -0.035480925    0.078640908     -0.047734496    -0.017118238    0.0054042032    0.05594121      0.031520587     -0.0042868637   0.064610837     0.065131722     0.060506635    
5.25            -0.22833409     -0.055212768    -0.028438624    -0.0128631      -0.021992947    -0.045060356    0.055162526     0.031781041     0.00061098176   0.05795863      0.065456952     0.068441165    
5.26            -0.044518717    -0.094621571    -0.19095314     0.016912237     -0.028732677    -0.090070942    0.043618428     0.031869282     0.016482184     0.052458516     0.065360171     0.073026926    
5.27            0.10575913      -0.12874909     -0.38075857     0.035270298     -0.03221963     -0.1113869      0.027602083     0.032446693     0.036756757     0.050625075     0.065019841     0.072379442    
5.28            0.15033705      -0.075368353    -0.46124956     0.035590226     -0.025636456    -0.094607929    0.013943249     0.034531607     0.054622048     0.052883293     0.064760726     0.06729761     
5.29            0.075453063     -0.04836242     -0.37256346     0.0087523256    -0.020534776    -0.051718418    0.0054430811    0.03505895      0.062333024     0.057971905     0.064224037     0.059577268    
5.3             -0.04753282     -0.064081882    -0.2114497      -0.030994264    -0.019481257    -0.0053900073   0.0060558808    0.033917593     0.055961846     0.064379935     0.063645031     0.051612127    
5.31            -0.24131772     -0.10113846     -0.058921182    -0.070625835    -0.022160225    0.032552275     0.014814256     0.03172896      0.039430019     0.069444001     0.063335392     0.046882576    
5.32            -0.45718882     -0.12192747     0.08615837      -0.092470461    -0.021841765    0.051823076     0.028983276     0.030797612     0.020492272     0.071126993     0.063683846     0.04757558     
5.33            -0.54337124     -0.059752819    0.14480045      -0.080440103    -0.016235055    0.044123233     0.045401144     0.031466841     0.0041941592    0.069433375     0.064509067     0.052774875    
5.34            -0.42547964     -0.035539159    0.078584033     -0.047793579    -0.017176028    0.0053476171    0.055889281     0.031460829     -0.0043537365   0.064555356     0.065073477     0.060447261    
5.35            -0.22839393     -0.055272131    -0.028496516    -0.012924532    -0.02205179     -0.04511734     0.05510882      0.031720065     0.00054358122   0.057903441     0.065397075     0.068378502    
5.36            -0.044579968    -0.094682265    -0.1910121      0.016848563     -0.028792839    -0.090128515    0.043562723     0.031807139     0.016414597     0.0524033       0.065298594     0.072961065    
5.37            0.10569684      -0.12881113     -0.3808191      0.035205189     -0.032282288    -0.11144583     0.027544625     0.032383389     0.036688752     0.050569622     0.06495655      0.072310498    
5.38            0.15027346      -0.075431517    -0.46131158     0.035522932     -0.025700096    -0.094668284    0.013883705     0.034467268     0.054553986     0.052827243     0.064695828     0.067226034    
5.39            0.075388617     -0.048426278    -0.37262786     0.0086839307    -0.02059883     -0.051779095    0.0053818772    0.034994088     0.062265303     0.057915165     0.064157849     0.059503603    
5.4             -0.047597949    -0.064147029    -0.21151471     -0.031063872    -0.019546365    -0.0054518746   0.0059925858    0.033852242     0.055894678     0.064322399     0.063577892     0.051537055    